# vtk DataFile Version 3.0
Grid data
ASCII
DATASET RECTILINEAR_GRID
DIMENSIONS 10 10 1
X_COORDINATES 10 float
0 1 2 3 4 5 6 7 8 9 
Y_COORDINATES 10 float
0 1 2 3 4 5 6 7 8 9 
Z_COORDINATES 1 float
0
POINT_DATA 100
SCALARS solution float 1
LOOKUP_TABLE default
0 0 0 0 0 0 0 0 0 0 
0 0.430374 0.659372 0.579842 0.228997 -0.228997 -0.579842 -0.659372 -0.430374 0 
0 0.659372 1.01022 0.888369 0.350844 -0.350844 -0.888369 -1.01022 -0.659372 0 
0 0.579842 0.888369 0.781219 0.308527 -0.308527 -0.781219 -0.888369 -0.579842 0 
0 0.228997 0.350844 0.308527 0.121847 -0.121847 -0.308527 -0.350844 -0.228997 0 
0 -0.228997 -0.350844 -0.308527 -0.121847 0.121847 0.308527 0.350844 0.228997 0 
0 -0.579842 -0.888369 -0.781219 -0.308527 0.308527 0.781219 0.888369 0.579842 0 
0 -0.659372 -1.01022 -0.888369 -0.350844 0.350844 0.888369 1.01022 0.659372 0 
0 -0.430374 -0.659372 -0.579842 -0.228997 0.228997 0.579842 0.659372 0.430374 0 
0 0 0 0 0 0 0 0 0 0 
